 Gaussian 09, Revision D.01,
 Gaussian 09:  AM64L-G09RevD.01 24-Apr-2013

 ----------------------------------------------------------------------
 # rhf/6-31G* gfprint gfinput scf=(direct,tight,maxcycle=300,xqc) freq=
 (noraman,readisotopes)
 ----------------------------------------------------------------------

 --------------------------
 Formamide_GS_Structure.log
 --------------------------
 Symbolic Z-matrix:
 Charge =  0 Multiplicity = 1

                         Standard orientation:
 ---------------------------------------------------------------------
 Center     Atomic      Atomic             Coordinates (Angstroms)
 Number     Number       Type             X           Y           Z
 ---------------------------------------------------------------------
      1          1           0        0.152315    1.472231    0.000050
      2          6           0        0.164648    0.381551    0.000000
      3          8           0        1.179630   -0.245146    0.000090
      4          7           0       -1.073280   -0.153013   -0.000560
      5          1           0       -1.175947   -1.143223    0.001160
      6          1           0       -1.888342    0.413945    0.001980
 ---------------------------------------------------------------------

 SCF Done:  E(RHF) =  -168.930702718     A.U. after   13 cycles

 The electronic state is 1-A.
 Alpha  occ. eigenvalues --  -20.53007 -15.59118 -11.35051  -1.39318  -1.22012
 Alpha  occ. eigenvalues --   -0.85018  -0.75336  -0.67373  -0.60708  -0.57158
 Alpha  occ. eigenvalues --   -0.42856  -0.41490
 Alpha virt. eigenvalues --    0.21169   0.22134   0.25869   0.31745   0.42816
 Alpha virt. eigenvalues --    0.54630   0.75024   0.75708   0.86322   0.92804
 Alpha virt. eigenvalues --    0.96551   0.98912   1.07214   1.12011   1.16985

 Mulliken charges:
               1
     1  H    0.143303
     2  C    0.508335
     3  O   -0.554678
     4  N   -0.884240
     5  H    0.398364
     6  H    0.388915
 Sum of Mulliken charges =   0.00000

 Dipole moment (field-independent basis, Debye):
    X=             -3.9412    Y=              1.1328    Z=              0.0080  Tot=              4.1008
 Quadrupole moment (field-independent basis, Debye-Ang):
   XX=            -17.9626   YY=            -14.7904   ZZ=            -18.5076
   XY=              1.1987   XZ=             -0.0144   YZ=             -0.0015

  Exact polarizability:  24.943  -1.193  19.214  -0.001   0.000   9.368
 Approx polarizability:  21.797  -2.071  16.545   0.001   0.000   9.339

                      1                      2                      3
                      A                      A                      A
 Frequencies --    108.6241               617.7245               673.4848
 Red. masses --      1.2215                 2.5005                 1.1964
 Frc consts  --      0.0085                 0.5622                 0.3197
 IR Inten    --    334.9605                17.3023                32.5179

                      4                      5                      6
                      A                      A                      A
 Frequencies --   1160.1875              1182.7691              1378.8982
 Red. masses --      1.7816                 1.5680                 2.6738
 Frc consts  --      1.4130                 1.2924                 2.9953
 IR Inten    --      8.3221                 2.5095               155.0496

                      7                      8                      9
                      A                      A                      A
 Frequencies --   1563.4216              1789.1492              1998.7823
 Red. masses --      1.2233                 1.2202                 7.2874
 Frc consts  --      1.7617                 2.3013                17.1535
 IR Inten    --     10.3357                84.0212               514.9064

                     10                     11                     12
                      A                      A                      A
 Frequencies --   3214.2509              3838.2360              3972.9002
 Red. masses --      1.0895                 1.0471                 1.1060
 Frc consts  --      6.6316                 9.0888                10.2857
 IR Inten    --    103.7591                57.9444                63.4843

 - Thermochemistry -
 -------------------
 Temperature   298.150 Kelvin.  Pressure   1.00000 Atm.
 Atom     1 has atomic number  1 and mass   1.00783

 Molecular mass:    45.02146 amu.
 Principal axes and moments of inertia in atomic units:
                           1         2         3
     Eigenvalues --    23.86830 155.53539 179.40363
           X            0.99980   0.01985  -0.00012
           Y           -0.01985   0.99980  -0.00007
           Z            0.00012   0.00007   1.00000
 This molecule is an asymmetric top.
 Rotational symmetry number  1.
 Rotational temperatures (Kelvin)      3.62882     0.55688     0.48279
 Rotational constants (GHZ):          75.61246    11.60341    10.05967
 Zero-point vibrational energy     128589.2 (Joules/Mol)
                                   30.73355 (Kcal/Mol)
 Warning -- explicit consideration of   2 degrees of freedom as
           vibrations may cause significant error
 Vibrational temperatures:    156.29   888.77   968.99  1669.25  1701.74
          (Kelvin)           1983.92  2249.41  2574.18  2875.80  4624.58
                             5522.36  5716.11

 Zero-point correction=                           0.048977 (Hartree/Particle)
 Thermal correction to Energy=                    0.052854
 Thermal correction to Enthalpy=                  0.053798
 Thermal correction to Gibbs Free Energy=         0.024033
 Sum of electronic and zero-point Energies=           -168.881726
 Sum of electronic and thermal Energies=              -168.877849
 Sum of electronic and thermal Enthalpies=            -168.876905
 Sum of electronic and thermal Free Energies=         -168.906669

                     E (Thermal)             CV                S
                      KCal/Mol        Cal/Mol-Kelvin    Cal/Mol-Kelvin
 Total                   33.166             10.440             62.645
 Electronic               0.000              0.000              0.000
 Translational            0.889              2.981             37.339
 Rotational               0.889              2.981             21.126
 Vibrational             31.389              4.478              4.179
 Vibration     1          0.606              1.942              3.293
 Vibration     2          0.977              0.994              0.420

 Normal termination of Gaussian 09 at Tue Jul 18 14:17:09 2017.
