 Gaussian 09, Revision D.01,
 Gaussian 09:  AM64L-G09RevD.01 24-Apr-2013

 ----------------------------------------------------------------------
 # rhf/6-31G* gfprint gfinput scf=(direct,tight,maxcycle=300,xqc) freq=
 (noraman,readisotopes)
 ----------------------------------------------------------------------

 ---------------------------
 Formamide_TS1_Structure.log
 ---------------------------
 Symbolic Z-matrix:
 Charge =  0 Multiplicity = 1

                         Standard orientation:
 ---------------------------------------------------------------------
 Center     Atomic      Atomic             Coordinates (Angstroms)
 Number     Number       Type             X           Y           Z
 ---------------------------------------------------------------------
      1          1           0        0.309911    1.488068    0.000062
      2          6           0        0.202733    0.406128   -0.000038
      3          8           0        1.145934   -0.308021   -0.000018
      4          7           0       -1.156046   -0.030954    0.000002
      5          1           0       -1.300365   -0.621915    0.800562
      6          1           0       -1.301095   -0.622075   -0.800268
 ---------------------------------------------------------------------

 SCF Done:  E(RHF) =  -168.905692303     A.U. after   12 cycles

 The electronic state is 1-A.
 Alpha  occ. eigenvalues --  -20.57664 -15.56955 -11.36222  -1.42752  -1.20029
 Alpha  occ. eigenvalues --   -0.84081  -0.68715  -0.68709  -0.66695  -0.52842
 Alpha  occ. eigenvalues --   -0.46594  -0.43343
 Alpha virt. eigenvalues --    0.15202   0.22161   0.29167   0.30683   0.43609
 Alpha virt. eigenvalues --    0.50369   0.74843   0.76434   0.89837   0.94776
 Alpha virt. eigenvalues --    0.96457   0.99373   1.08698   1.10551   1.13371

 Mulliken charges:
               1
     1  H    0.168367
     2  C    0.412139
     3  O   -0.443231
     4  N   -0.869466
     5  H    0.366075
     6  H    0.366116
 Sum of Mulliken charges =   0.00000

 Dipole moment (field-independent basis, Debye):
    X=             -1.5331    Y=              0.0190    Z=              0.0000  Tot=              1.5332
 Quadrupole moment (field-independent basis, Debye-Ang):
   XX=            -22.3025   YY=            -16.4857   ZZ=            -15.4199
   XY=              4.0116   XZ=              0.0011   YZ=             -0.0002

  Exact polarizability:  21.306  -0.224  18.383   0.001   0.000  13.635
 Approx polarizability:  18.477  -1.562  16.028   0.001  -0.001  12.887

 ******    1 imaginary frequencies (negative Signs) ******

                      1                      2                      3
                      A                      A                      A
 Frequencies --   -442.9707               592.6243               856.2435
 Red. masses --      1.6115                 2.7941                 1.8349
 Frc consts  --      0.1863                 0.5782                 0.7926
 IR Inten    --     82.2782                60.8567                 7.5533

                      4                      5                      6
                      A                      A                      A
 Frequencies --    974.0961              1187.9340              1297.8887
 Red. masses --      1.9350                 4.1772                 2.0380
 Frc consts  --      1.0818                 3.4731                 2.0227
 IR Inten    --     97.9048               109.3017                16.9859

                      7                      8                      9
                      A                      A                      A
 Frequencies --   1543.9449              1604.3210              2029.8985
 Red. masses --      1.1542                 1.2471                10.2182
 Frc consts  --      1.6210                 1.8912                24.8069
 IR Inten    --      3.8982                56.1808               283.3947

                     10                     11                     12
                      A                      A                      A
 Frequencies --   2723.7209              3258.9451              3735.6319
 Red. masses --      2.2378                 1.0906                 1.0735
 Frc consts  --      9.7812                 6.8247                 8.8267
 IR Inten    --     13.1300                83.3564                16.6879

 - Thermochemistry -
 -------------------
 Temperature   298.150 Kelvin.  Pressure   1.00000 Atm.
 Atom     1 has atomic number  1 and mass   1.00783

 Molecular mass:    46.02774 amu.
 Principal axes and moments of inertia in atomic units:
                           1         2         3
     Eigenvalues --    31.25520 168.93938 187.03084
           X            0.99921   0.02890   0.02719
           Y           -0.03154   0.99426   0.10227
           Z           -0.02408  -0.10304   0.99439
 This molecule is an asymmetric top.
 Rotational symmetry number  1.
 Rotational temperatures (Kelvin)      2.77118     0.51269     0.46310
 Rotational constants (GHZ):          57.74210    10.68277     9.64943
    1 imaginary frequencies ignored.
 Zero-point vibrational energy     118461.7 (Joules/Mol)
                                   28.31302 (Kcal/Mol)
 Warning -- explicit consideration of   1 degrees of freedom as
           vibrations may cause significant error
 Vibrational temperatures:    852.65  1231.94  1401.51  1709.17  1867.37
          (Kelvin)           2221.39  2308.26  2920.57  3918.82  4688.89
                             5374.73

 Zero-point correction=                           0.045120 (Hartree/Particle)
 Thermal correction to Energy=                    0.048257
 Thermal correction to Enthalpy=                  0.049202
 Thermal correction to Gibbs Free Energy=         0.020815
 Sum of electronic and zero-point Energies=           -168.860573
 Sum of electronic and thermal Energies=              -168.857435
 Sum of electronic and thermal Enthalpies=            -168.856491
 Sum of electronic and thermal Free Energies=         -168.884877

                     E (Thermal)             CV                S
                      KCal/Mol        Cal/Mol-Kelvin    Cal/Mol-Kelvin
 Total                   30.282              8.467             59.745
 Electronic               0.000              0.000              0.000
 Translational            0.889              2.981             37.405
 Rotational               0.889              2.981             21.518
 Vibrational             28.504              2.506              0.822
 Vibration     1          0.950              1.047              0.463

 Optimization completed.
    -- Stationary point found.
 Normal termination of Gaussian 09 at Tue Jul 18 14:17:10 2017.
